<VTKFile type="UnstructuredGrid" byte_order="BigEndian">
<UnstructuredGrid><Piece NumberOfPoints="451" NumberOfCells="400">
<Points>
 <DataArray type="Float32" NumberOfComponents="3" format="ascii">
 0.000000000000000000e+00 0.000000000000000000e+00 0.000000000000000000e+00
 1.999999955296516418e-02 0.000000000000000000e+00 0.000000000000000000e+00
 3.999999910593032837e-02 0.000000000000000000e+00 0.000000000000000000e+00
 5.999999865889549255e-02 0.000000000000000000e+00 0.000000000000000000e+00
 7.999999821186065674e-02 0.000000000000000000e+00 0.000000000000000000e+00
 1.000000014901161194e-01 0.000000000000000000e+00 0.000000000000000000e+00
 1.199999973177909851e-01 0.000000000000000000e+00 0.000000000000000000e+00
 1.400000005960464478e-01 0.000000000000000000e+00 0.000000000000000000e+00
 1.599999964237213135e-01 0.000000000000000000e+00 0.000000000000000000e+00
 1.800000071525573730e-01 0.000000000000000000e+00 0.000000000000000000e+00
 2.000000029802322388e-01 0.000000000000000000e+00 0.000000000000000000e+00
 0.000000000000000000e+00 2.500000037252902985e-02 0.000000000000000000e+00
 1.999999955296516418e-02 2.500000037252902985e-02 0.000000000000000000e+00
 3.999999910593032837e-02 2.500000037252902985e-02 0.000000000000000000e+00
 5.999999865889549255e-02 2.500000037252902985e-02 0.000000000000000000e+00
 7.999999821186065674e-02 2.500000037252902985e-02 0.000000000000000000e+00
 1.000000014901161194e-01 2.500000037252902985e-02 0.000000000000000000e+00
 1.199999973177909851e-01 2.500000037252902985e-02 0.000000000000000000e+00
 1.400000005960464478e-01 2.500000037252902985e-02 0.000000000000000000e+00
 1.599999964237213135e-01 2.500000037252902985e-02 0.000000000000000000e+00
 1.800000071525573730e-01 2.500000037252902985e-02 0.000000000000000000e+00
 2.000000029802322388e-01 2.500000037252902985e-02 0.000000000000000000e+00
 0.000000000000000000e+00 5.000000074505805969e-02 0.000000000000000000e+00
 1.999999955296516418e-02 5.000000074505805969e-02 0.000000000000000000e+00
 3.999999910593032837e-02 5.000000074505805969e-02 0.000000000000000000e+00
 5.999999865889549255e-02 5.000000074505805969e-02 0.000000000000000000e+00
 7.999999821186065674e-02 5.000000074505805969e-02 0.000000000000000000e+00
 1.000000014901161194e-01 5.000000074505805969e-02 0.000000000000000000e+00
 1.199999973177909851e-01 5.000000074505805969e-02 0.000000000000000000e+00
 1.400000005960464478e-01 5.000000074505805969e-02 0.000000000000000000e+00
 1.599999964237213135e-01 5.000000074505805969e-02 0.000000000000000000e+00
 1.800000071525573730e-01 5.000000074505805969e-02 0.000000000000000000e+00
 2.000000029802322388e-01 5.000000074505805969e-02 0.000000000000000000e+00
 0.000000000000000000e+00 7.500000298023223877e-02 0.000000000000000000e+00
 1.999999955296516418e-02 7.500000298023223877e-02 0.000000000000000000e+00
 3.999999910593032837e-02 7.500000298023223877e-02 0.000000000000000000e+00
 5.999999865889549255e-02 7.500000298023223877e-02 0.000000000000000000e+00
 7.999999821186065674e-02 7.500000298023223877e-02 0.000000000000000000e+00
 1.000000014901161194e-01 7.500000298023223877e-02 0.000000000000000000e+00
 1.199999973177909851e-01 7.500000298023223877e-02 0.000000000000000000e+00
 1.400000005960464478e-01 7.500000298023223877e-02 0.000000000000000000e+00
 1.599999964237213135e-01 7.500000298023223877e-02 0.000000000000000000e+00
 1.800000071525573730e-01 7.500000298023223877e-02 0.000000000000000000e+00
 2.000000029802322388e-01 7.500000298023223877e-02 0.000000000000000000e+00
 0.000000000000000000e+00 1.000000014901161194e-01 0.000000000000000000e+00
 1.999999955296516418e-02 1.000000014901161194e-01 0.000000000000000000e+00
 3.999999910593032837e-02 1.000000014901161194e-01 0.000000000000000000e+00
 5.999999865889549255e-02 1.000000014901161194e-01 0.000000000000000000e+00
 7.999999821186065674e-02 1.000000014901161194e-01 0.000000000000000000e+00
 1.000000014901161194e-01 1.000000014901161194e-01 0.000000000000000000e+00
 1.199999973177909851e-01 1.000000014901161194e-01 0.000000000000000000e+00
 1.400000005960464478e-01 1.000000014901161194e-01 0.000000000000000000e+00
 1.599999964237213135e-01 1.000000014901161194e-01 0.000000000000000000e+00
 1.800000071525573730e-01 1.000000014901161194e-01 0.000000000000000000e+00
 2.000000029802322388e-01 1.000000014901161194e-01 0.000000000000000000e+00
 0.000000000000000000e+00 1.250000000000000000e-01 0.000000000000000000e+00
 1.999999955296516418e-02 1.250000000000000000e-01 0.000000000000000000e+00
 3.999999910593032837e-02 1.250000000000000000e-01 0.000000000000000000e+00
 5.999999865889549255e-02 1.250000000000000000e-01 0.000000000000000000e+00
 7.999999821186065674e-02 1.250000000000000000e-01 0.000000000000000000e+00
 1.000000014901161194e-01 1.250000000000000000e-01 0.000000000000000000e+00
 1.199999973177909851e-01 1.250000000000000000e-01 0.000000000000000000e+00
 1.400000005960464478e-01 1.250000000000000000e-01 0.000000000000000000e+00
 1.599999964237213135e-01 1.250000000000000000e-01 0.000000000000000000e+00
 1.800000071525573730e-01 1.250000000000000000e-01 0.000000000000000000e+00
 2.000000029802322388e-01 1.250000000000000000e-01 0.000000000000000000e+00
 0.000000000000000000e+00 1.500000059604644775e-01 0.000000000000000000e+00
 1.999999955296516418e-02 1.500000059604644775e-01 0.000000000000000000e+00
 3.999999910593032837e-02 1.500000059604644775e-01 0.000000000000000000e+00
 5.999999865889549255e-02 1.500000059604644775e-01 0.000000000000000000e+00
 7.999999821186065674e-02 1.500000059604644775e-01 0.000000000000000000e+00
 1.000000014901161194e-01 1.500000059604644775e-01 0.000000000000000000e+00
 1.199999973177909851e-01 1.500000059604644775e-01 0.000000000000000000e+00
 1.400000005960464478e-01 1.500000059604644775e-01 0.000000000000000000e+00
 1.599999964237213135e-01 1.500000059604644775e-01 0.000000000000000000e+00
 1.800000071525573730e-01 1.500000059604644775e-01 0.000000000000000000e+00
 2.000000029802322388e-01 1.500000059604644775e-01 0.000000000000000000e+00
 0.000000000000000000e+00 1.749999970197677612e-01 0.000000000000000000e+00
 1.999999955296516418e-02 1.749999970197677612e-01 0.000000000000000000e+00
 3.999999910593032837e-02 1.749999970197677612e-01 0.000000000000000000e+00
 5.999999865889549255e-02 1.749999970197677612e-01 0.000000000000000000e+00
 7.999999821186065674e-02 1.749999970197677612e-01 0.000000000000000000e+00
 1.000000014901161194e-01 1.749999970197677612e-01 0.000000000000000000e+00
 1.199999973177909851e-01 1.749999970197677612e-01 0.000000000000000000e+00
 1.400000005960464478e-01 1.749999970197677612e-01 0.000000000000000000e+00
 1.599999964237213135e-01 1.749999970197677612e-01 0.000000000000000000e+00
 1.800000071525573730e-01 1.749999970197677612e-01 0.000000000000000000e+00
 2.000000029802322388e-01 1.749999970197677612e-01 0.000000000000000000e+00
 0.000000000000000000e+00 2.000000029802322388e-01 0.000000000000000000e+00
 1.999999955296516418e-02 2.000000029802322388e-01 0.000000000000000000e+00
 3.999999910593032837e-02 2.000000029802322388e-01 0.000000000000000000e+00
 5.999999865889549255e-02 2.000000029802322388e-01 0.000000000000000000e+00
 7.999999821186065674e-02 2.000000029802322388e-01 0.000000000000000000e+00
 1.000000014901161194e-01 2.000000029802322388e-01 0.000000000000000000e+00
 1.199999973177909851e-01 2.000000029802322388e-01 0.000000000000000000e+00
 1.400000005960464478e-01 2.000000029802322388e-01 0.000000000000000000e+00
 1.599999964237213135e-01 2.000000029802322388e-01 0.000000000000000000e+00
 1.800000071525573730e-01 2.000000029802322388e-01 0.000000000000000000e+00
 2.000000029802322388e-01 2.000000029802322388e-01 0.000000000000000000e+00
 0.000000000000000000e+00 2.249999940395355225e-01 0.000000000000000000e+00
 1.999999955296516418e-02 2.249999940395355225e-01 0.000000000000000000e+00
 3.999999910593032837e-02 2.249999940395355225e-01 0.000000000000000000e+00
 5.999999865889549255e-02 2.249999940395355225e-01 0.000000000000000000e+00
 7.999999821186065674e-02 2.249999940395355225e-01 0.000000000000000000e+00
 1.000000014901161194e-01 2.249999940395355225e-01 0.000000000000000000e+00
 1.199999973177909851e-01 2.249999940395355225e-01 0.000000000000000000e+00
 1.400000005960464478e-01 2.249999940395355225e-01 0.000000000000000000e+00
 1.599999964237213135e-01 2.249999940395355225e-01 0.000000000000000000e+00
 1.800000071525573730e-01 2.249999940395355225e-01 0.000000000000000000e+00
 2.000000029802322388e-01 2.249999940395355225e-01 0.000000000000000000e+00
 0.000000000000000000e+00 2.500000000000000000e-01 0.000000000000000000e+00
 1.999999955296516418e-02 2.500000000000000000e-01 0.000000000000000000e+00
 3.999999910593032837e-02 2.500000000000000000e-01 0.000000000000000000e+00
 5.999999865889549255e-02 2.500000000000000000e-01 0.000000000000000000e+00
 7.999999821186065674e-02 2.500000000000000000e-01 0.000000000000000000e+00
 1.000000014901161194e-01 2.500000000000000000e-01 0.000000000000000000e+00
 1.199999973177909851e-01 2.500000000000000000e-01 0.000000000000000000e+00
 1.400000005960464478e-01 2.500000000000000000e-01 0.000000000000000000e+00
 1.599999964237213135e-01 2.500000000000000000e-01 0.000000000000000000e+00
 1.800000071525573730e-01 2.500000000000000000e-01 0.000000000000000000e+00
 2.000000029802322388e-01 2.500000000000000000e-01 0.000000000000000000e+00
 0.000000000000000000e+00 2.750000059604644775e-01 0.000000000000000000e+00
 1.999999955296516418e-02 2.750000059604644775e-01 0.000000000000000000e+00
 3.999999910593032837e-02 2.750000059604644775e-01 0.000000000000000000e+00
 5.999999865889549255e-02 2.750000059604644775e-01 0.000000000000000000e+00
 7.999999821186065674e-02 2.750000059604644775e-01 0.000000000000000000e+00
 1.000000014901161194e-01 2.750000059604644775e-01 0.000000000000000000e+00
 1.199999973177909851e-01 2.750000059604644775e-01 0.000000000000000000e+00
[...]
<CellData>
 <DataArray Name="pos.x" type="Float32" NumberOfComponents="1" format="ascii">
 1.000000000000000541e-02
 3.000000000000002318e-02
 4.999999999999998196e-02
 7.000000000000003442e-02
 9.000000000000002442e-02
 1.100000000000000422e-01
 1.299999999999999767e-01
 1.500000000000001887e-01
 1.699999999999999289e-01
 1.900000000000000577e-01
 1.000000000000000541e-02
 3.000000000000001971e-02
 5.000000000000000278e-02
 7.000000000000003442e-02
 9.000000000000002442e-02
 1.100000000000000422e-01
 1.299999999999998934e-01
 1.500000000000001055e-01
 1.699999999999999289e-01
 1.900000000000000577e-01
 1.000000000000000368e-02
 3.000000000000000583e-02
 5.000000000000003053e-02
 7.000000000000004829e-02
 9.000000000000001055e-02
 1.099999999999999450e-01
 1.300000000000001432e-01
 1.500000000000002165e-01
 1.700000000000000122e-01
 1.899999999999999467e-01
 1.000000000000000368e-02
 3.000000000000003011e-02
 5.000000000000001665e-02
 6.999999999999997891e-02
 9.000000000000002442e-02
 1.100000000000000561e-01
 1.300000000000000044e-01
 1.500000000000001332e-01
 1.700000000000000955e-01
 1.900000000000000855e-01
 1.000000000000000541e-02
 3.000000000000001277e-02
 5.000000000000004441e-02
 6.999999999999997891e-02
 9.000000000000006606e-02
 1.099999999999999728e-01
 1.300000000000000322e-01
 1.500000000000000222e-01
 1.700000000000002065e-01
 1.899999999999999745e-01
 1.000000000000000888e-02
 3.000000000000000236e-02
 5.000000000000001665e-02
 6.999999999999996503e-02
 9.000000000000005218e-02
 1.099999999999999450e-01
 1.300000000000001432e-01
 1.500000000000000777e-01
 1.700000000000002065e-01
 1.900000000000000577e-01
 1.000000000000000541e-02
 3.000000000000000236e-02
 5.000000000000005135e-02
 6.999999999999995115e-02
 9.000000000000005218e-02
 1.099999999999999312e-01
 1.300000000000000044e-01
 1.500000000000001332e-01
 1.699999999999997347e-01
 1.900000000000003630e-01
 1.000000000000000368e-02
 3.000000000000001971e-02
 5.000000000000001665e-02
 6.999999999999996503e-02
 9.000000000000009381e-02
 1.099999999999999728e-01
 1.300000000000000044e-01
 1.500000000000001610e-01
 1.700000000000000955e-01
 1.900000000000000855e-01
 1.000000000000000368e-02
 3.000000000000001277e-02
 5.000000000000004441e-02
 6.999999999999996503e-02
 9.000000000000001055e-02
 1.100000000000000561e-01
 1.299999999999999767e-01
 1.500000000000000222e-01
 1.699999999999999289e-01
 1.899999999999999467e-01
 1.000000000000000888e-02
 3.000000000000000236e-02
 5.000000000000001665e-02
 7.000000000000002054e-02
 9.000000000000002442e-02
 1.100000000000000561e-01
 1.299999999999999767e-01
 1.500000000000001332e-01
 1.700000000000002065e-01
 1.899999999999997802e-01
 1.000000000000000541e-02
 3.000000000000001277e-02
 5.000000000000001665e-02
 7.000000000000002054e-02
 9.000000000000005218e-02
 1.100000000000000144e-01
 1.300000000000000322e-01
 1.500000000000000777e-01
 1.700000000000001510e-01
 1.899999999999999467e-01
 1.000000000000001409e-02
 3.000000000000001277e-02
 5.000000000000000278e-02
 7.000000000000004829e-02
 9.000000000000001055e-02
 1.100000000000000144e-01
 1.299999999999999489e-01
 1.500000000000003553e-01
 1.700000000000002065e-01
 1.899999999999999467e-01
 9.999999999999998473e-03
 3.000000000000000583e-02
 5.000000000000000278e-02
 7.000000000000003442e-02
 9.000000000000001055e-02
 1.100000000000000561e-01
 1.300000000000000877e-01
 1.499999999999999667e-01
 1.700000000000002065e-01
 1.899999999999998357e-01
 1.000000000000001409e-02
 3.000000000000001971e-02
 5.000000000000000278e-02
 6.999999999999999278e-02
 9.000000000000013545e-02
 1.099999999999999312e-01
 1.300000000000000322e-01
 1.500000000000000222e-01
 1.700000000000000122e-01
 1.900000000000002798e-01
 9.999999999999996739e-03
 3.000000000000000236e-02
 5.000000000000006523e-02
 6.999999999999997891e-02
 9.000000000000007994e-02
 1.099999999999999450e-01
 1.300000000000000044e-01
 1.500000000000000222e-01
 1.700000000000000122e-01
 1.899999999999999467e-01
 1.000000000000000541e-02
 3.000000000000001971e-02
 4.999999999999998890e-02
 7.000000000000004829e-02
 9.000000000000005218e-02
 1.100000000000000144e-01
 1.300000000000000322e-01
 1.500000000000000777e-01
 1.700000000000000955e-01
 1.900000000000000855e-01
 1.000000000000000541e-02
 2.999999999999997807e-02
 5.000000000000004441e-02
 7.000000000000007605e-02
 9.000000000000003830e-02
 1.100000000000000561e-01
 1.300000000000000044e-01
 1.500000000000001055e-01
 1.700000000000000122e-01
 1.900000000000001688e-01
 1.000000000000000541e-02
 3.000000000000002318e-02
 5.000000000000003053e-02
 6.999999999999999278e-02
 9.000000000000002442e-02
 1.100000000000000144e-01
 1.299999999999999767e-01
 1.500000000000001610e-01
 1.699999999999999289e-01
 1.899999999999998912e-01
 1.000000000000000541e-02
 3.000000000000001277e-02
 5.000000000000001665e-02
 7.000000000000004829e-02
 8.999999999999994116e-02
 1.099999999999999867e-01
 1.300000000000000044e-01
 1.500000000000000777e-01
 1.699999999999998457e-01
 1.900000000000003908e-01
 1.000000000000000368e-02
 3.000000000000002318e-02
 4.999999999999998890e-02
 7.000000000000007605e-02
 8.999999999999996891e-02
 1.100000000000001255e-01
 1.299999999999999212e-01
 1.500000000000003830e-01
 1.700000000000000955e-01
 1.899999999999995859e-01
 1.000000000000000541e-02
 3.000000000000001277e-02
 5.000000000000001665e-02
 7.000000000000002054e-02
 9.000000000000005218e-02
 1.100000000000000144e-01
 1.300000000000000322e-01
 1.500000000000000777e-01
 1.700000000000002065e-01
 1.899999999999999467e-01
 1.000000000000000541e-02
 3.000000000000001277e-02
 5.000000000000001665e-02
 7.000000000000002054e-02
 9.000000000000005218e-02
 1.100000000000000144e-01
 1.300000000000000322e-01
 1.500000000000000777e-01
 1.700000000000002065e-01
 1.899999999999999467e-01
 1.000000000000002970e-02
 2.999999999999998848e-02
 5.000000000000001665e-02
 7.000000000000002054e-02
 9.000000000000005218e-02
 1.100000000000000144e-01
 1.300000000000000322e-01
 1.500000000000000777e-01
 1.700000000000002065e-01
 1.899999999999999467e-01
 9.999999999999996739e-03
 3.000000000000001277e-02
 5.000000000000001665e-02
 7.000000000000002054e-02
 9.000000000000005218e-02
 1.100000000000000144e-01
 1.300000000000000322e-01
 1.500000000000000777e-01
 1.700000000000003730e-01
 1.899999999999999467e-01
 9.999999999999993269e-03
 3.000000000000002318e-02
 5.000000000000000278e-02
 7.000000000000007605e-02
 9.000000000000001055e-02
 1.100000000000000561e-01
 1.299999999999999212e-01
 1.500000000000002720e-01
 1.699999999999999289e-01
 1.900000000000000577e-01
 1.000000000000000541e-02
 3.000000000000000236e-02
 5.000000000000001665e-02
 7.000000000000004829e-02
 9.000000000000005218e-02
 1.100000000000000144e-01
 1.300000000000000322e-01
 1.500000000000000777e-01
 1.699999999999998457e-01
 1.900000000000003353e-01
 1.000000000000000541e-02
 3.000000000000002318e-02
 5.000000000000001665e-02
 7.000000000000007605e-02
 9.000000000000001055e-02
 1.100000000000000144e-01
 1.300000000000000322e-01
 1.500000000000000222e-01
 1.700000000000000122e-01
 1.900000000000003353e-01
 1.000000000000001582e-02
 3.000000000000002318e-02
 5.000000000000000278e-02
 7.000000000000004829e-02
 9.000000000000003830e-02
 1.100000000000000144e-01
 1.300000000000000600e-01
 1.500000000000001332e-01
 1.699999999999997902e-01
 1.900000000000001688e-01
 9.999999999999988065e-03
 3.000000000000001971e-02
 5.000000000000004441e-02
 7.000000000000003442e-02
 9.000000000000002442e-02
 1.100000000000000561e-01
 1.299999999999999212e-01
 1.500000000000002998e-01
 1.700000000000000955e-01
 1.899999999999999467e-01
 1.000000000000000541e-02
 3.000000000000002318e-02
 5.000000000000001665e-02
 6.999999999999997891e-02
 9.000000000000007994e-02
 1.100000000000000561e-01
 1.299999999999999212e-01
 1.500000000000003830e-01
 1.700000000000000955e-01
 1.899999999999998912e-01
 1.000000000000002970e-02
 2.999999999999998848e-02
 5.000000000000000278e-02
 7.000000000000004829e-02
 9.000000000000005218e-02
 1.100000000000000144e-01
 1.300000000000000322e-01
 1.500000000000003275e-01
 1.699999999999998457e-01
 1.899999999999999467e-01
 9.999999999999982861e-03
 3.000000000000005093e-02
 4.999999999999998890e-02
 7.000000000000002054e-02
 9.000000000000005218e-02
 1.100000000000000144e-01
 1.300000000000000322e-01
 1.500000000000003275e-01
 1.700000000000001232e-01
 1.899999999999999467e-01
 1.000000000000000541e-02
 2.999999999999998848e-02
 5.000000000000004441e-02
 7.000000000000006217e-02
 9.000000000000001055e-02
 1.100000000000000144e-01
 1.300000000000000600e-01
 1.500000000000001887e-01
 1.700000000000000122e-01
 1.899999999999998357e-01
 1.000000000000000541e-02
 3.000000000000001971e-02
 5.000000000000000278e-02
 7.000000000000006217e-02
 9.000000000000005218e-02
 1.100000000000000144e-01
 1.300000000000000322e-01
 1.500000000000001055e-01
 1.700000000000002065e-01
 1.899999999999999467e-01
 1.000000000000000368e-02
 3.000000000000001971e-02
 5.000000000000006523e-02
 6.999999999999999278e-02
 9.000000000000006606e-02
 1.099999999999999728e-01
 1.300000000000000044e-01
 1.500000000000001055e-01
 1.700000000000003175e-01
 1.900000000000000300e-01
 1.000000000000000541e-02
 3.000000000000001277e-02
 5.000000000000000278e-02
 7.000000000000006217e-02
 9.000000000000005218e-02
 1.099999999999999450e-01
 1.300000000000000600e-01
 1.500000000000000777e-01
 1.699999999999999289e-01
 1.899999999999997802e-01
 1.000000000000000888e-02
 3.000000000000002318e-02
 5.000000000000001665e-02
 6.999999999999989564e-02
 9.000000000000014932e-02
 1.099999999999999450e-01
 1.300000000000000044e-01
 1.500000000000000777e-01
 1.700000000000004841e-01
 1.899999999999999467e-01
 1.000000000000000888e-02
 2.999999999999998848e-02
 5.000000000000006523e-02
 6.999999999999995115e-02
 9.000000000000009381e-02
 1.099999999999999312e-01
 1.300000000000000600e-01
 1.500000000000001332e-01
 1.700000000000002065e-01
 1.899999999999998912e-01
 9.999999999999993269e-03
 3.000000000000003705e-02
 5.000000000000000278e-02
 6.999999999999999278e-02
 9.000000000000012157e-02
 1.099999999999999312e-01
 1.300000000000000322e-01
 1.500000000000002165e-01
 1.700000000000000955e-01
 1.899999999999999745e-01
 1.000000000000001756e-02
 3.000000000000001277e-02
 4.999999999999998196e-02
 7.000000000000003442e-02
 9.000000000000007994e-02
 1.099999999999999450e-01
 1.300000000000000322e-01
 1.500000000000003553e-01
 1.700000000000000955e-01
 1.899999999999998912e-01
 </DataArray>
 <DataArray Name="pos.y" type="Float32" NumberOfComponents="1" format="ascii">
 1.250000000000000416e-02
 1.250000000000000416e-02
 1.250000000000000069e-02
 1.250000000000000069e-02
 1.249999999999999722e-02
 1.250000000000001110e-02
 1.249999999999998161e-02
 1.250000000000001978e-02
 1.249999999999999202e-02
 1.250000000000000069e-02
 3.750000000000001249e-02
 3.750000000000001249e-02
 3.749999999999999861e-02
 3.749999999999999861e-02
 3.749999999999999167e-02
 3.750000000000002637e-02
 3.749999999999999167e-02
 3.750000000000001943e-02
 3.749999999999998473e-02
 3.749999999999998473e-02
 6.249999999999999306e-02
 6.250000000000000000e-02
 6.250000000000004163e-02
 6.250000000000000000e-02
 6.250000000000000000e-02
 6.249999999999997224e-02
 6.250000000000001388e-02
 6.250000000000004163e-02
 6.250000000000001388e-02
 6.249999999999995837e-02
 8.750000000000004996e-02
 8.750000000000006384e-02
 8.750000000000002220e-02
 8.749999999999993894e-02
 8.750000000000002220e-02
 8.749999999999999445e-02
 8.750000000000002220e-02
 8.750000000000004996e-02
 8.750000000000003608e-02
 8.749999999999998057e-02
 1.124999999999999889e-01
 1.125000000000000028e-01
 1.125000000000000305e-01
 1.124999999999999195e-01
 1.125000000000000305e-01
 1.124999999999999889e-01
 1.125000000000000305e-01
 1.124999999999999195e-01
 1.125000000000001138e-01
 1.124999999999999195e-01
 1.375000000000000111e-01
 1.374999999999999556e-01
 1.375000000000000944e-01
 1.374999999999998168e-01
 1.375000000000000944e-01
 1.374999999999999001e-01
 1.375000000000001221e-01
 1.374999999999999001e-01
 1.375000000000001221e-01
 1.374999999999999278e-01
 1.625000000000000333e-01
 1.624999999999999223e-01
 1.625000000000001721e-01
 1.625000000000000333e-01
 1.625000000000000888e-01
 1.625000000000001166e-01
 1.624999999999999778e-01
 1.625000000000002831e-01
 1.624999999999998945e-01
 1.625000000000003109e-01
 1.875000000000002220e-01
 1.875000000000003331e-01
 1.875000000000000278e-01
 1.874999999999999722e-01
 1.875000000000002220e-01
 1.874999999999998890e-01
 1.875000000000001110e-01
 1.875000000000002220e-01
 1.874999999999998890e-01
 1.875000000000002220e-01
 2.124999999999998279e-01
 2.125000000000000500e-01
 2.125000000000001332e-01
 2.124999999999999667e-01
 2.124999999999997446e-01
 2.124999999999999667e-01
 2.124999999999997446e-01
 2.124999999999997446e-01
 2.125000000000000500e-01
 2.124999999999998834e-01
 2.375000000000001554e-01
 2.375000000000000444e-01
 2.374999999999999334e-01
 2.375000000000000167e-01
 2.375000000000000444e-01
 2.375000000000000999e-01
 2.375000000000002387e-01
 2.375000000000000444e-01
 2.375000000000002665e-01
 2.374999999999996558e-01
 2.624999999999999556e-01
 2.624999999999999556e-01
 2.625000000000003442e-01
 2.625000000000003442e-01
 2.624999999999999001e-01
 2.624999999999999556e-01
 2.625000000000003442e-01
 2.625000000000000666e-01
 2.625000000000003442e-01
 2.624999999999999001e-01
 2.875000000000001443e-01
 2.875000000000001443e-01
 2.874999999999998113e-01
 2.874999999999997558e-01
 2.875000000000001998e-01
 2.875000000000000333e-01
 2.874999999999995337e-01
 2.875000000000001998e-01
 2.874999999999998113e-01
 2.875000000000001443e-01
 3.125000000000000000e-01
 3.125000000000000000e-01
 3.124999999999997780e-01
 3.125000000000001665e-01
 3.124999999999996114e-01
 3.125000000000000000e-01
 3.125000000000002220e-01
 3.125000000000000000e-01
 3.125000000000005551e-01
 3.124999999999993339e-01
 3.374999999999999112e-01
 3.374999999999999667e-01
 3.375000000000004108e-01
 3.375000000000002442e-01
 3.375000000000004108e-01
 3.375000000000001887e-01
 3.375000000000001887e-01
 3.375000000000001887e-01
 3.375000000000001887e-01
 3.375000000000007438e-01
 3.625000000000002109e-01
 3.625000000000000444e-01
 3.625000000000002109e-01
 3.625000000000001554e-01
 3.625000000000002109e-01
 3.624999999999996558e-01
 3.624999999999996558e-01
 3.624999999999996558e-01
 3.624999999999996558e-01
 3.625000000000002109e-01
 3.875000000000007883e-01
 3.874999999999999556e-01
 3.875000000000000111e-01
 3.875000000000003442e-01
 3.875000000000003997e-01
 3.874999999999999556e-01
 3.875000000000007327e-01
 3.875000000000003997e-01
 3.875000000000002331e-01
 3.874999999999999556e-01
 4.125000000000000333e-01
 4.124999999999998668e-01
 4.125000000000005329e-01
 4.124999999999997558e-01
 4.125000000000000888e-01
 4.125000000000004774e-01
 4.125000000000003109e-01
 4.125000000000003109e-01
 4.125000000000001998e-01
 4.125000000000010880e-01
 4.374999999999995004e-01
 4.374999999999996669e-01
 4.374999999999999445e-01
 4.374999999999999445e-01
 4.374999999999997780e-01
 4.374999999999993894e-01
 4.374999999999991118e-01
 4.374999999999990563e-01
 4.374999999999995559e-01
 4.374999999999988898e-01
 4.625000000000005773e-01
 4.625000000000000222e-01
 4.624999999999999112e-01
 4.624999999999999112e-01
 4.624999999999992450e-01
 4.624999999999998557e-01
 4.624999999999998557e-01
 4.625000000000011879e-01
 4.624999999999996891e-01
 4.625000000000000222e-01
 4.874999999999999334e-01
 4.875000000000007105e-01
 4.875000000000000444e-01
 4.875000000000004885e-01
 4.875000000000004885e-01
 4.875000000000005440e-01
 4.875000000000000444e-01
 4.875000000000009326e-01
 4.875000000000002109e-01
 4.874999999999996558e-01
 5.124999999999996225e-01
 5.124999999999996225e-01
 5.124999999999995115e-01
 5.124999999999991784e-01
 5.124999999999995115e-01
 5.124999999999996225e-01
 5.125000000000002887e-01
 5.124999999999996225e-01
 5.124999999999996225e-01
 5.124999999999995115e-01
 5.375000000000004219e-01
 5.375000000000004219e-01
 5.375000000000007550e-01
 5.375000000000008660e-01
 5.375000000000015321e-01
 5.375000000000003109e-01
 5.375000000000008660e-01
 5.375000000000004219e-01
 5.375000000000016431e-01
 5.375000000000003109e-01
 5.625000000000007772e-01
 5.624999999999994449e-01
 5.625000000000003331e-01
 5.624999999999992228e-01
 5.624999999999998890e-01
 5.624999999999996669e-01
 5.624999999999993339e-01
 5.624999999999987788e-01
 5.625000000000000000e-01
 5.624999999999998890e-01
 5.875000000000006883e-01
 5.874999999999993561e-01
 5.874999999999998002e-01
 5.874999999999999112e-01
 5.875000000000006883e-01
 5.875000000000003553e-01
 5.875000000000000222e-01
 5.874999999999995781e-01
 5.875000000000019096e-01
 5.874999999999993561e-01
 6.124999999999997113e-01
 6.124999999999996003e-01
 6.125000000000007105e-01
 6.125000000000003775e-01
 6.124999999999999334e-01
 6.124999999999994893e-01
 6.125000000000007105e-01
 6.125000000000017097e-01
 6.124999999999990452e-01
 6.124999999999998224e-01
 6.375000000000007327e-01
 6.375000000000008438e-01
 6.374999999999992895e-01
 6.374999999999995115e-01
 6.374999999999997335e-01
 6.375000000000003997e-01
 6.374999999999992895e-01
 6.374999999999997335e-01
 6.374999999999998446e-01
 6.375000000000008438e-01
 6.625000000000014211e-01
 6.625000000000008660e-01
 6.625000000000014211e-01
 6.625000000000016431e-01
 6.625000000000015321e-01
 6.624999999999999778e-01
 6.625000000000021982e-01
 6.624999999999993117e-01
 6.625000000000004219e-01
 6.625000000000016431e-01
 6.874999999999980016e-01
 6.874999999999986677e-01
 6.874999999999993339e-01
 6.874999999999995559e-01
 6.874999999999993339e-01
 6.875000000000011102e-01
 6.875000000000000000e-01
 6.875000000000012212e-01
 6.875000000000011102e-01
 6.875000000000000000e-01
 7.124999999999996891e-01
 7.125000000000016875e-01
 7.124999999999989120e-01
 7.124999999999986899e-01
 7.124999999999993561e-01
 7.124999999999990230e-01
 7.124999999999981348e-01
 7.124999999999981348e-01
 7.124999999999972466e-01
 7.124999999999986899e-01
 7.374999999999996003e-01
 7.374999999999996003e-01
 7.375000000000035971e-01
 7.375000000000017097e-01
 7.375000000000012657e-01
 7.375000000000009326e-01
 7.375000000000000444e-01
 7.375000000000035971e-01
 7.374999999999993783e-01
 7.374999999999983791e-01
 7.625000000000002887e-01
 7.625000000000003997e-01
 7.625000000000008438e-01
 7.624999999999988454e-01
 7.625000000000021760e-01
 7.625000000000015099e-01
 7.625000000000009548e-01
 7.625000000000025091e-01
 7.624999999999984013e-01
 7.625000000000021760e-01
 7.875000000000031974e-01
 7.874999999999994227e-01
 7.874999999999996447e-01
 7.875000000000016431e-01
 7.874999999999994227e-01
 7.874999999999984235e-01
 7.875000000000016431e-01
 7.875000000000037526e-01
 7.875000000000015321e-01
 7.874999999999994227e-01
 8.124999999999984457e-01
 8.125000000000011102e-01
 8.125000000000025535e-01
 8.125000000000004441e-01
 8.124999999999996669e-01
 8.124999999999990008e-01
 8.124999999999996669e-01
 8.124999999999996669e-01
 8.125000000000004441e-01
 8.124999999999996669e-01
 8.375000000000014655e-01
 8.374999999999985789e-01
 8.375000000000005773e-01
 8.374999999999982458e-01
 8.375000000000009104e-01
 8.375000000000021316e-01
 8.375000000000025757e-01
 8.375000000000017986e-01
 8.375000000000017986e-01
 8.375000000000009104e-01
 8.624999999999993783e-01
 8.624999999999997113e-01
 8.625000000000018208e-01
 8.624999999999979350e-01
 8.624999999999989342e-01
 8.624999999999989342e-01
 8.624999999999967137e-01
 8.624999999999980460e-01
 8.624999999999997113e-01
 8.624999999999964917e-01
 8.875000000000006217e-01
 8.874999999999984013e-01
 8.874999999999984013e-01
 8.875000000000025091e-01
 8.875000000000009548e-01
 8.874999999999980682e-01
 8.874999999999992895e-01
 8.875000000000001776e-01
 8.874999999999988454e-01
 8.875000000000025091e-01
 9.125000000000001998e-01
 9.125000000000007550e-01