<VTKFile type="UnstructuredGrid" byte_order="BigEndian">
<UnstructuredGrid><Piece NumberOfPoints="1271" NumberOfCells="1200">
<Points>
 <DataArray type="Float32" NumberOfComponents="3" format="ascii">
 2.000000029802322388e-01 0.000000000000000000e+00 0.000000000000000000e+00
 2.266666740179061890e-01 9.705999866127967834e-03 0.000000000000000000e+00
 2.533333301544189453e-01 1.941199973225593567e-02 0.000000000000000000e+00
 2.800000011920928955e-01 2.911799959838390350e-02 0.000000000000000000e+00
 3.066666722297668457e-01 3.882399946451187134e-02 0.000000000000000000e+00
 3.333333432674407959e-01 4.853000119328498840e-02 0.000000000000000000e+00
 3.600000143051147461e-01 5.823599919676780701e-02 0.000000000000000000e+00
 3.866666555404663086e-01 6.794200092554092407e-02 0.000000000000000000e+00
 4.133333265781402588e-01 7.764799892902374268e-02 0.000000000000000000e+00
 4.399999976158142090e-01 8.735399693250656128e-02 0.000000000000000000e+00
 4.666666686534881592e-01 9.706000238656997681e-02 0.000000000000000000e+00
 4.933333396911621094e-01 1.067660003900527954e-01 0.000000000000000000e+00
 5.199999809265136719e-01 1.164719983935356140e-01 0.000000000000000000e+00
 5.466666817665100098e-01 1.261779963970184326e-01 0.000000000000000000e+00
 5.733333230018615723e-01 1.358840018510818481e-01 0.000000000000000000e+00
 6.000000238418579102e-01 1.455900073051452637e-01 0.000000000000000000e+00
 6.266666650772094727e-01 1.552959978580474854e-01 0.000000000000000000e+00
 6.533333063125610352e-01 1.650020033121109009e-01 0.000000000000000000e+00
 6.800000071525573730e-01 1.747079938650131226e-01 0.000000000000000000e+00
 7.066666483879089355e-01 1.844139993190765381e-01 0.000000000000000000e+00
 7.333333492279052734e-01 1.941200047731399536e-01 0.000000000000000000e+00
 7.599999904632568359e-01 2.038259953260421753e-01 0.000000000000000000e+00
 7.866666913032531738e-01 2.135320007801055908e-01 0.000000000000000000e+00
 8.133333325386047363e-01 2.232380062341690063e-01 0.000000000000000000e+00
 8.399999737739562988e-01 2.329439967870712280e-01 0.000000000000000000e+00
 8.666666746139526367e-01 2.426500022411346436e-01 0.000000000000000000e+00
 8.933333158493041992e-01 2.523559927940368652e-01 0.000000000000000000e+00
 9.200000166893005371e-01 2.620620131492614746e-01 0.000000000000000000e+00
 9.466666579246520996e-01 2.717680037021636963e-01 0.000000000000000000e+00
 9.733333587646484375e-01 2.814739942550659180e-01 0.000000000000000000e+00
 1.000000000000000000e+00 2.911800146102905273e-01 0.000000000000000000e+00
 2.000000029802322388e-01 2.500000037252902985e-02 0.000000000000000000e+00
 2.257413268089294434e-01 3.340017795562744141e-02 0.000000000000000000e+00
 2.514826655387878418e-01 4.180035367608070374e-02 0.000000000000000000e+00
 2.772240042686462402e-01 5.020053312182426453e-02 0.000000000000000000e+00
 3.035489320755004883e-01 5.935406684875488281e-02 0.000000000000000000e+00
 3.298738300800323486e-01 6.850760430097579956e-02 0.000000000000000000e+00
 3.561987578868865967e-01 7.766114175319671631e-02 0.000000000000000000e+00
 3.827785551548004150e-01 8.722776919603347778e-02 0.000000000000000000e+00
 4.093583226203918457e-01 9.679440408945083618e-02 0.000000000000000000e+00
 4.359380900859832764e-01 1.063610315322875977e-01 0.000000000000000000e+00
 4.626318812370300293e-01 1.161179468035697937e-01 0.000000000000000000e+00
 4.893256723880767822e-01 1.258748471736907959e-01 0.000000000000000000e+00
 5.160194635391235352e-01 1.356317698955535889e-01 0.000000000000000000e+00
 5.427688360214233398e-01 1.454554498195648193e-01 0.000000000000000000e+00
 5.695182085037231445e-01 1.552791446447372437e-01 0.000000000000000000e+00
 5.962675809860229492e-01 1.651028394699096680e-01 0.000000000000000000e+00
 6.230419874191284180e-01 1.749103069305419922e-01 0.000000000000000000e+00
 6.498163938522338867e-01 1.847177594900131226e-01 0.000000000000000000e+00
 6.765908002853393555e-01 1.945252269506454468e-01 0.000000000000000000e+00
 7.033776044845581055e-01 2.042549699544906616e-01 0.000000000000000000e+00
 7.301644086837768555e-01 2.139847129583358765e-01 0.000000000000000000e+00
 7.569512128829956055e-01 2.237144708633422852e-01 0.000000000000000000e+00
 7.837704420089721680e-01 2.333359569311141968e-01 0.000000000000000000e+00
 8.105897307395935059e-01 2.429574579000473022e-01 0.000000000000000000e+00
 8.374089598655700684e-01 2.525789439678192139e-01 0.000000000000000000e+00
 8.643430471420288086e-01 2.620791196823120117e-01 0.000000000000000000e+00
 8.912771344184875488e-01 2.715792953968048096e-01 0.000000000000000000e+00
 9.182112216949462891e-01 2.810794711112976074e-01 0.000000000000000000e+00
 9.454741477966308594e-01 2.903531491756439209e-01 0.000000000000000000e+00
 9.727370738983154297e-01 2.996268272399902344e-01 0.000000000000000000e+00
 1.000000000000000000e+00 3.089005053043365479e-01 0.000000000000000000e+00
 2.000000029802322388e-01 5.000000074505805969e-02 0.000000000000000000e+00
 2.248159945011138916e-01 5.709435418248176575e-02 0.000000000000000000e+00
 2.496320009231567383e-01 6.418871134519577026e-02 0.000000000000000000e+00
 2.744480073451995850e-01 7.128306478261947632e-02 0.000000000000000000e+00
 3.004311919212341309e-01 7.988413423299789429e-02 0.000000000000000000e+00
 3.264143466949462891e-01 8.848521113395690918e-02 0.000000000000000000e+00
 3.523975312709808350e-01 9.708628058433532715e-02 0.000000000000000000e+00
 3.788904249668121338e-01 1.065135449171066284e-01 0.000000000000000000e+00
 4.053833186626434326e-01 1.159408017992973328e-01 0.000000000000000000e+00
 4.318762123584747314e-01 1.253680735826492310e-01 0.000000000000000000e+00
 4.585970938205718994e-01 1.351758837699890137e-01 0.000000000000000000e+00
 4.853180050849914551e-01 1.449837088584899902e-01 0.000000000000000000e+00
 5.120388865470886230e-01 1.547915190458297729e-01 0.000000000000000000e+00
 5.388709902763366699e-01 1.647329032421112061e-01 0.000000000000000000e+00
 5.657030940055847168e-01 1.746743023395538330e-01 0.000000000000000000e+00
 5.925351381301879883e-01 1.846156865358352661e-01 0.000000000000000000e+00
 6.194173097610473633e-01 1.945246011018753052e-01 0.000000000000000000e+00
 6.462994813919067383e-01 2.044335305690765381e-01 0.000000000000000000e+00
 6.731816530227661133e-01 2.143424451351165771e-01 0.000000000000000000e+00
 7.000885605812072754e-01 2.240959405899047852e-01 0.000000000000000000e+00
 7.269954681396484375e-01 2.338494360446929932e-01 0.000000000000000000e+00
 7.539023756980895996e-01 2.436029314994812012e-01 0.000000000000000000e+00
 7.808742523193359375e-01 2.531399130821228027e-01 0.000000000000000000e+00
 8.078460693359375000e-01 2.626768946647644043e-01 0.000000000000000000e+00
 8.348179459571838379e-01 2.722138762474060059e-01 0.000000000000000000e+00
 8.620194196701049805e-01 2.815082371234893799e-01 0.000000000000000000e+00
 8.892209529876708984e-01 2.908025979995727539e-01 0.000000000000000000e+00
 9.164224863052368164e-01 3.000969290733337402e-01 0.000000000000000000e+00
 9.442816376686096191e-01 3.089382946491241455e-01 0.000000000000000000e+00
 9.721408486366271973e-01 3.177796602249145508e-01 0.000000000000000000e+00
 1.000000000000000000e+00 3.266209959983825684e-01 0.000000000000000000e+00
 2.000000029802322388e-01 7.500000298023223877e-02 0.000000000000000000e+00
 2.238906621932983398e-01 8.078853040933609009e-02 0.000000000000000000e+00
 2.477813363075256348e-01 8.657706528902053833e-02 0.000000000000000000e+00
 2.716720104217529297e-01 9.236559271812438965e-02 0.000000000000000000e+00
 2.973134219646453857e-01 1.004142016172409058e-01 0.000000000000000000e+00
 3.229548633098602295e-01 1.084628105163574219e-01 0.000000000000000000e+00
 3.485963046550750732e-01 1.165114194154739380e-01 0.000000000000000000e+00
 3.750022947788238525e-01 1.257993131875991821e-01 0.000000000000000000e+00
 4.014083147048950195e-01 1.350872069597244263e-01 0.000000000000000000e+00
 4.278143048286437988e-01 1.443751007318496704e-01 0.000000000000000000e+00
 4.545623362064361572e-01 1.542338281869888306e-01 0.000000000000000000e+00
 4.813103377819061279e-01 1.640925556421279907e-01 0.000000000000000000e+00
 5.080583691596984863e-01 1.739512830972671509e-01 0.000000000000000000e+00
 5.349731445312500000e-01 1.840103715658187866e-01 0.000000000000000000e+00
 5.618879199028015137e-01 1.940694451332092285e-01 0.000000000000000000e+00
 5.888026952743530273e-01 2.041285187005996704e-01 0.000000000000000000e+00
 6.157926321029663086e-01 2.141389101743698120e-01 0.000000000000000000e+00
 6.427825689315795898e-01 2.241492867469787598e-01 0.000000000000000000e+00
 6.697725057601928711e-01 2.341596782207489014e-01 0.000000000000000000e+00
 6.967995166778564453e-01 2.439369112253189087e-01 0.000000000000000000e+00
 7.238265275955200195e-01 2.537141442298889160e-01 0.000000000000000000e+00
 7.508535981178283691e-01 2.634913921356201172e-01 0.000000000000000000e+00
 7.779780030250549316e-01 2.729438841342926025e-01 0.000000000000000000e+00
 8.051024675369262695e-01 2.823963463306427002e-01 0.000000000000000000e+00
 8.322268724441528320e-01 2.918488383293151855e-01 0.000000000000000000e+00
 8.596958518028259277e-01 3.009373545646667480e-01 0.000000000000000000e+00
 8.871647715568542480e-01 3.100258708000183105e-01 0.000000000000000000e+00
 9.146336913108825684e-01 3.191144168376922607e-01 0.000000000000000000e+00
 9.430891275405883789e-01 3.275234401226043701e-01 0.000000000000000000e+00
 9.715445637702941895e-01 3.359324634075164795e-01 0.000000000000000000e+00
 1.000000000000000000e+00 3.443414866924285889e-01 0.000000000000000000e+00
 2.000000029802322388e-01 1.000000014901161194e-01 0.000000000000000000e+00
 2.229653298854827881e-01 1.044827103614807129e-01 0.000000000000000000e+00
 2.459306716918945312e-01 1.089654192328453064e-01 0.000000000000000000e+00
 2.688960134983062744e-01 1.134481281042098999e-01 0.000000000000000000e+00
[...]
<CellData>
 <DataArray Name="pos.x" type="Float32" NumberOfComponents="1" format="ascii">
 2.130155204640097610e-01
 2.392187891526790511e-01
 2.654219938189423256e-01
 2.918200766333107210e-01
 3.183155083847082345e-01
 3.448109252617844733e-01
 3.714007403048167344e-01
 3.980239389081110524e-01
 4.246471372549253664e-01
 4.513131659738738866e-01
 4.779933857636507466e-01
 5.046736055733916926e-01
 5.313719367609109900e-01
 5.580799479534871432e-01
 5.847879592218605538e-01
 6.114993127564503084e-01
 6.382198795520751533e-01
 6.649404462047459052e-01
 6.916554483652898044e-01
 7.183822165712997476e-01
 7.451089848545051630e-01
 7.718309724517651293e-01
 7.985738893760780943e-01
 8.253168056956985410e-01
 8.520699020871189688e-01
 8.788699546013666319e-01
 9.056699971731918541e-01
 9.325108314527863484e-01
 9.594740142783138026e-01
 9.864370824367045820e-01
 2.125528411315645849e-01
 2.378307477869986419e-01
 2.631085851601107084e-01
 2.888731651524230060e-01
 3.150268453676021707e-01
 3.411805102006190138e-01
 3.675560591267656441e-01
 3.940923702794108530e-01
 4.206286811732976583e-01
 4.472648273546923625e-01
 4.739721634206924827e-01
 5.006794995065970699e-01
 5.274327417950726016e-01
 5.542234601356036405e-01
 5.810141785513265322e-01
 6.078207661521672911e-01
 6.346490846915697759e-01
 6.614774030893437740e-01
 6.883063440087675566e-01
 7.151532337463066824e-01
 7.420001235603757017e-01
 7.688584573201812100e-01
 7.957539643249851302e-01
 8.226494707306861720e-01
 8.496125496617136230e-01
 8.766800291885786800e-01
 9.037474989329652431e-01
 9.310201123686804303e-01
 9.585795793249982655e-01
 9.861389361591316183e-01
 2.120901608007311201e-01
 2.364427030170156707e-01
 2.607951700154324537e-01
 2.859262524231079849e-01
 3.117381808701535917e-01
 3.375500934008966447e-01
 3.637113779202309494e-01
 3.901608016211223773e-01
 4.166102250609451940e-01
 4.432164887375116269e-01
 4.699509410797098607e-01
 4.966853934417606031e-01
 5.234935468390730096e-01
 5.503669723272346381e-01
 5.772403978899908195e-01
 6.041422195185837118e-01
 6.310782898028883814e-01
 6.580143599468485371e-01
 6.849572396082503900e-01
 7.119242508787657631e-01
 7.388912622251799789e-01
 7.658859422368550218e-01
 7.929340393206020243e-01
 8.199821358107567404e-01
 8.471551977320349591e-01
 8.744901042375592404e-01
 9.018250011167510127e-01
 9.295293965727564611e-01
 9.576851465506788230e-01
 9.858407906864986581e-01
 2.116274793505422136e-01
 2.350546544107661173e-01
 2.584817475211209081e-01
 2.829793383861655687e-01
 3.084495148206881088e-01
 3.339196747766278728e-01
 3.598666966848631521e-01
 3.862292329328852469e-01
 4.125917689174889436e-01
 4.391681501223253514e-01
 4.659297187406996610e-01
 4.926912873788656388e-01
 5.195543518928082971e-01
 5.465104845282761081e-01
 5.734666172377517190e-01
 6.004636728561023595e-01
 6.275074948863893498e-01
 6.545513167776171315e-01
 6.816081351642955255e-01
 7.086952679692479773e-01
 7.357824008494313617e-01
 7.629134272010795748e-01
 7.901141143622427698e-01
 8.173148009352252386e-01
 8.446978462855746494e-01
 8.723001797365030896e-01
 8.999025037135601757e-01
 9.280386838764682622e-01
 9.567907158263694312e-01
 9.855426459695684205e-01
 2.113862860688070777e-01
 2.342053013013346008e-01
 2.570243172904810858e-01
 2.809281205139552151e-01
 3.059657983599306519e-01
 3.310034668845041606e-01
 3.566026032660096767e-01
 3.827477764452548170e-01
 4.088929332312689069e-01
 4.353373160162670175e-01
 4.620433578357693860e-01
 4.887493954175284872e-01
 5.156207764176369279e-01
 5.426274052376037771e-01
 5.696340338195593489e-01
 5.967266122348597879e-01
 6.238925082841163539e-01
 6.510584043645978314e-01
 6.782677484448215166e-01
 7.055277788125036142e-01
 7.327878096076884118e-01
 7.601143652055237787e-01
 7.875341350286366726e-01
 8.149539062879770368e-01
 8.425948615591623003e-01
 8.704953981409018215e-01
 8.983959253802464850e-01
 9.269408736281594674e-01
 9.561453937681078097e-01
 9.853498896406490681e-01
 2.112399365795180062e-01
 2.337662528480403124e-01
 2.562925698935375474e-01
 2.797881910924774340e-01
 3.043022186643337679e-01
 3.288162364634101831e-01
 3.539799737230921450e-01
 3.797780293149087827e-01
 4.055760679485559961e-01
 4.317780187539750347e-01
 4.583462479133891820e-01
 4.849144727705980151e-01
 5.117261365398698691e-01
 5.387510959268374533e-01
 5.657760550757303664e-01
 5.929459770556130271e-01
 6.202482047587182246e-01
 6.475504324927374711e-01
 6.749406857056889919e-01
 7.024261808793644812e-01
 7.299116764737697549e-01
 7.574936042639630607e-01
 7.851986633917693581e-01
 8.129037239289458316e-01
 8.408517623363220839e-01
 8.690812283076425615e-01
 8.973106851314267551e-01
 9.261735533673842724e-01
 9.556850012454948251e-01
 9.851964253372247349e-01
 2.110935870953357663e-01
 2.333272044106524667e-01
 2.555608225241346454e-01
 2.786482612825380012e-01
 3.026386383581412542e-01
 3.266290051760303292e-01
 3.513573429546986149e-01
 3.768082807077289265e-01
 4.022592009080863118e-01
 4.282187211616424460e-01
 4.546491376362886694e-01
 4.810795497428054235e-01
 5.078314966633660221e-01
 5.348747866173375609e-01
 5.619180763331772521e-01
 5.891653417999485054e-01
 6.166039011595980668e-01
 6.440424605498500377e-01
 6.716136226895279560e-01
 6.993245826868256243e-01
 7.270355430982440303e-01
 7.548728431459249544e-01
 7.828631915942281250e-01
 8.108535414258017937e-01
 8.391086634895356111e-01
 8.676670587939763202e-01
 8.962254451397080324e-01
 9.254062334188841721e-01
 9.552246089210671975e-01
 9.850429611037647692e-01
 2.109472376164663321e-01
 2.328881559898200726e-01
 2.548290751834121348e-01
 2.775083310566837103e-01
 3.009750573970716991e-01
 3.244417729578430443e-01
 3.487347109018578140e-01
 3.738385305511012224e-01
 3.989423320215252922e-01
 4.246594232325433538e-01
 4.509520269971523665e-01
 4.772446263262004051e-01
 5.039368567881252758e-01
 5.309984773091105392e-01
 5.580600975919047801e-01
 5.853847064689837731e-01
 6.129595974878303544e-01
 6.405344885369906871e-01
 6.682865594029070433e-01
 6.962229842410495584e-01
 7.241594094868526454e-01
 7.522520818564111256e-01
 7.805277196406015250e-01
 8.088033587826736204e-01
 8.373655650070074286e-01
 8.662528895897125825e-01
 8.951402053967323358e-01
 9.246389137735584463e-01
 9.547642167889606180e-01
 9.848894969381460918e-01
 2.108910252826624865e-01
 2.326772676394565365e-01
 2.544635099930791511e-01
 2.768680509256366551e-01
 2.999320582696995974e-01
 3.229960661153095103e-01
 3.468729847049132342e-01
 3.715973923530406231e-01
 3.963217911852838782e-01
 4.217137355842208724e-01
 4.477782527852363081e-01
 4.738427452699428000e-01
 5.003889247804228502e-01
 5.273969153857471781e-01
 5.544048885877963517e-01
 5.817606042426093360e-01
 6.094382525510607662e-01
 6.371158960604332844e-01
 6.650458452680947374e-01
 6.932121677606988275e-01
 7.213784908858777989e-01
 7.497532550942006546e-01
 7.783391021097091356e-01
 8.069249517419120332e-01
 8.358158454420643313e-01
 8.650289499275989336e-01
 8.942420550592938833e-01
 9.240340669474802482e-01
 9.544092371089132332e-01
 9.847844028676662198e-01
 2.108827315847632833e-01
 2.326523865457563456e-01
 2.544220415035720606e-01
 2.766771723386034498e-01
 2.994589467986047415e-01
 3.222407217730467455e-01
 3.457704558462897371e-01
 3.700827436255040848e-01
 3.943950222520558047e-01
 4.194220661249590254e-01
 4.451689510463189281e-01
 4.709158104699952552e-01
 4.972408748441246584e-01
 5.241242367486128595e-01
 5.510075809809484859e-01
 5.783359041384943389e-01
 6.060833117356373423e-01
 6.338307145401337328e-01
 6.619128312372388745e-01
 6.903136607597413210e-01
 7.187144909055791508e-01
 7.473739766559106545e-01
 7.762947337018040184e-01
 8.052154933075998944e-01
 8.344348337518905367e-01
 8.639699408323588958e-01
 8.935050485456565994e-01
 9.235540589432669201e-01
 9.541212322656827949e-01
 9.846884012392506103e-01
 2.108744378868629976e-01
 2.326275054520526298e-01
 2.543805730140596411e-01
 2.764862937558788536e-01
 2.989858353385858591e-01
 3.214853774491296945e-01
 3.446679266486049609e-01
 3.685680944022004524e-01
 3.924682526467018207e-01
 4.171303952564768824e-01
 4.425596475947708441e-01
 4.679888736165666585e-01
 4.940928241230307383e-01
 5.208515572539565985e-01
 5.476102724377001074e-01
 5.749112041067879764e-01
 6.027283709933520806e-01
 6.305455330936706737e-01
 6.587798171210996756e-01
 6.874151536784474104e-01
 7.160504908500859855e-01
 7.449946978525685548e-01
 7.742503649742626948e-01
 8.035060346008860988e-01
 8.330538220311576314e-01
 8.629109317129781687e-01
 8.927680420146982820e-01
 9.230740509768177171e-01
 9.538332274458828364e-01
 9.845923996188900018e-01
 2.108661441889620736e-01
 2.326026243583473596e-01
 2.543391045245443904e-01
 2.762954151776271794e-01
 2.985127238900726065e-01
 3.207300331442799468e-01
 3.435653970929956058e-01
 3.670534446549394980e-01
 3.905414823301576743e-01
 4.148387229167631585e-01
 4.399503423535348623e-01
 4.650619346151135258e-01
 4.909447726014882218e-01
 5.175788768843915255e-01
 5.442129629387107981e-01
 5.714865041472237950e-01
 5.993734303239066641e-01
 6.272603517207508972e-01
 6.556468029215969384e-01
 6.845166465186297566e-01
 7.133864907211039386e-01
 7.426154186960260972e-01
 7.722059959375257021e-01
 8.017965756307376957e-01
 8.316728102807862122e-01
 8.618519225701993802e-01
 8.920310354669864772e-01
 9.225940430474470766e-01
 9.535452226490277461e-01
 9.844963980064428410e-01
 2.108894763672097827e-01
 2.326592182156651534e-01
 2.544289599901831678e-01
 2.763294424608134237e-01
 2.983823425085151970e-01
 3.204352424701834567e-01
 3.430267161643883456e-01
 3.661919686983134969e-01
 3.893572186911260502e-01
 4.133150236827509705e-01
 4.381003011739964537e-01
 4.628855579621795058e-01
 4.884891626340361892e-01
 5.149282035122211276e-01
 5.413671908570266700e-01
 5.685334341636208988e-01
 5.964165275483509498e-01
 6.242995704198068818e-01
 6.527827924849767260e-01
 6.818347629739800464e-01
 7.108867163329672945e-01
 7.403791857917926267e-01
 7.702777000400994334e-01
 8.001762148201843061e-01
 8.303794398018191636e-01
 8.608693457852141240e-01
 8.913592534544707569e-01
 9.221684898249160600e-01
 9.532964292874114287e-01
 9.844243689001519471e-01
 2.109310156873889786e-01
 2.327838361766241815e-01
 2.546366565924809144e-01
 2.765554207237110318e-01
 2.985618048326941776e-01
 3.205681888552904812e-01
 3.430195456437073465e-01
 3.659510794617601981e-01
 3.888826106856115850e-01
 4.125559066595811952e-01
 4.370059013285343408e-01
 4.614558746620101570e-01
 4.867595674178208376e-01
 5.129341204676567401e-01
 5.391086185824081056e-01
 5.661047808221980615e-01
 5.939121717801835176e-01
 6.217195116395051180e-01
 6.502304174213292542e-01
 6.794133270333133634e-01
 7.085962196031724281e-01
 7.382948513254183887e-01
 7.684746575083423181e-01
 7.986544642139452588e-01
 8.291479796335115005e-01
 8.599371612011381671e-01
 8.907263444226910520e-01
 9.217657615244336800e-01
 9.530547923082753892e-01
 9.843438232408256994e-01
 2.109725550077793665e-01
 2.329084541382130391e-01
 2.548443531958197172e-01
 2.767813989871517055e-01
 2.987412671573108081e-01
 3.207011352407223015e-01
 3.430123751223882467e-01
 3.657101902029828433e-01
 3.884080026345957948e-01
 4.117967892110548367e-01
 4.359115008295557647e-01
 4.600261904507670363e-01
 4.850299706026990343e-01
 5.109400354360124075e-01
 5.368500438770604788e-01
 5.636761266025691608e-01
 5.914078150436605785e-01
 6.191394517907924389e-01
 6.476780426539047175e-01
 6.769918913868812060e-01
 7.063057231649736423e-01
 7.362105168204826633e-01
 7.666716149424201987e-01
 7.971327135781547391e-01
 8.279165193262951750e-01
 8.590049765104746937e-01
 8.900934353175463665e-01
 9.213630332217865870e-01
 9.528131553278127441e-01
 9.842632775810570278e-01
 2.110140943283780879e-01
 2.330330721004239547e-01
 2.550520498001865866e-01
 2.770073772511407739e-01
 2.989207294823675864e-01
 3.208340816264837470e-01
 3.430052046004121724e-01
 3.654693009212732213e-01
 3.879333945366250092e-01
 4.110376713182971042e-01
 4.348170996474238770e-01
 4.585965052862070457e-01
 4.833003721310221157e-01
 5.089459483437827059e-01
 5.345914666486867306e-01
 5.612474714923657571e-01
 5.889034573248368432e-01
 6.165593908579091176e-01
 6.451256681799273363e-01
 6.745704560318540599e-01
 7.040152270155290992e-01
 7.341261822779956425e-01
 7.648685723432187000e-01
 7.956109629135982297e-01
 8.266850588840617409e-01
 8.580727917162361829e-01
 8.894605261411406838e-01
 9.209603049169869937e-01
 9.525715183460511382e-01
 9.841827319208444891e-01
 2.110624747943466439e-01
 2.331775760582945611e-01
 2.552926771547408547e-01
 2.773144445107733613e-01
 2.992510338674282955e-01
 3.211876231949725158e-01
 3.433151202475786534e-01
 3.656567304148024555e-01
 3.879983398901076797e-01
 4.109159341229111639e-01
 4.344455687687432399e-01
 4.579751932851803264e-01
 4.824103550165892429e-01
 5.077906349185007384e-01
 5.331708662663443565e-01
 5.596020117796925986e-01
 5.871072386907407736e-01
 6.146123595676846740e-01
 6.431130013019448199e-01
 6.725927721177087371e-01
 7.020724566371140396e-01
 7.323141773569782353e-01
 7.632605405622442385e-01
 7.942068881658985724e-01
 8.255374269267872211e-01
 8.571901543314406346e-01
 8.888428823979964699e-01
 9.205667385098479372e-01
 9.523411034662054853e-01
 9.841154682841137813e-01
 2.111170417958774248e-01
 2.333412770641224432e-01
 2.555655121664975882e-01
 2.776882964069171122e-01
 2.997177855658307855e-01
 3.217472746958764951e-01
 3.439155537229841020e-01
 3.662458230325676412e-01
 3.885760916498487427e-01
 4.114056987059013792e-01
 4.347706869298760823e-01
 4.581356648875258286e-01
 4.823553297248175387e-01
 5.074692583620071806e-01
 5.325831373629787979e-01
 5.587687981660273140e-01
 5.860494327209117005e-01
 6.133299591164824704e-01
 6.416889073189765424e-01
 6.711098305819698240e-01
 7.005306668595217001e-01
 7.308069139026827088e-01
 7.618810386938787982e-01
 7.929551479810855730e-01
 8.244650124825601001e-01
 8.563485787114469838e-01
 8.882321455928272602e-01
 9.201539733898846940e-01
 9.520934443931532432e-01
 9.840329152593997319e-01
 2.111716087981659329e-01
 2.335049780722073809e-01
 2.558383471819862254e-01
 2.780621483076545775e-01
 3.001845372699625814e-01
 3.223069262036388771e-01
 3.445159871995320255e-01
 3.668349156514785214e-01
 3.891538434107278399e-01
 4.118954633830944068e-01
 4.350958051563851292e-01
 4.582961365236326023e-01
 4.823003043880713658e-01
 5.071478815230471282e-01
 5.319954079030522198e-01
 5.579355835995586377e-01
 5.849916254301626983e-01
 6.120475569119162573e-01
 6.402648128428409802e-01
 6.696268884912224273e-01
 6.989888764570340030e-01
 7.292996506178895944e-01
 7.605015369875739450e-01
 7.917034079500133714e-01
 8.233925979833358610e-01
 8.555070030479324794e-01
 8.876214087558157440e-01
 9.197412082606872819e-01
 9.518457853145788627e-01
 9.839503622328648058e-01
 2.112261758012023982e-01
 2.336686790825156790e-01
 2.561111822011505335e-01
 2.784360002129315781e-01
 3.006512889797495758e-01
 3.228665777181766172e-01
 3.451164206772241450e-01
 3.674240082715303224e-01
 3.897315951727461369e-01
 4.123852281564182043e-01
 4.354209234496328462e-01
 4.584566081942109128e-01
 4.822452790048872284e-01
 5.068265043921547086e-01
 5.314076778674596824e-01
 5.571023680537438016e-01
 5.839338167805856461e-01
 6.107651529020952097e-01
 6.388407178687141030e-01
 6.681439458399096587e-01
 6.974470854232124317e-01
 7.277923875008746046e-01
 7.591220354416785554e-01
 7.904516680710580445e-01
 8.223201834302970026e-01
 8.546654273418239356e-01
 8.870106718876282770e-01
 9.193284431224262310e-01
 9.515981262305802657e-01
 9.838678092045167745e-01
 2.112746587537275844e-01
 2.338211237562185796e-01
 2.563675887057794145e-01
 2.788114492440330605e-01
 3.011529248511534140e-01
 3.234944003333802831e-01
 3.458497567865335132e-01
 3.682306343758493528e-01
 3.906115123798040711e-01
 4.132816096765993819e-01
 4.362664282179180564e-01
 4.592512443565155422e-01
 4.829220690995279508e-01
 5.073172964046668287e-01
 5.317125004462254223e-01
 5.571853076421502404e-01
 5.837777360258747938e-01
 6.103700822427323702e-01
 6.382288864779980253e-01
 6.673730350593339855e-01
 6.965170448715262141e-01
 7.267788692986756338e-01
 7.581186752592670164e-01
 7.894584128122938971e-01
 8.214253938003278632e-01
 8.539290749319216056e-01
 8.864327544698467065e-01
 9.189314602457123726e-01
 9.513635496124854818e-01
 9.837956388459874191e-01
 2.113240494860337826e-01
 2.339692959534840910e-01
 2.566145423684634830e-01
 2.791874677581339115e-01
 3.016882931589234262e-01
 3.241891184365761069e-01
 3.467029660699182392e-01
 3.692414755374266999e-01
 3.917799854136620463e-01
 4.145601458031102360e-01
 4.376074351844380650e-01
 4.606547221797953617e-01
 4.843036034898438591e-01
 5.085924182330794352e-01
 5.328812095751659372e-01
 5.581737563236569555e-01
 5.845120211730330251e-01
 6.108502024530017005e-01
 6.384527668730608507e-01
 6.673385947155296982e-01
 6.962242812777570400e-01
 7.263041230413709304e-01
 7.575382538942641020e-01
 7.887723157843072874e-01
 8.207297369294783707e-01
 8.533199063745819934e-01
 8.859100742338732459e-01
 9.185319318059298466e-01
 9.511238325476290001e-01
 9.837157331573771479e-01
 2.113734402190022843e-01
 2.341174681527314894e-01
 2.568614960344430820e-01
 2.795634862941951404e-01
 3.022236614978979774e-01
 3.248838365801876571e-01
 3.475561753979050650e-01
 3.702523167522382419e-01
 3.929484585095082694e-01
 4.158386818830545062e-01
 4.389484421007942005e-01
 4.620581999491351621e-01
 4.856851381180462557e-01
 5.098675402932303369e-01
 5.340499189285197179e-01
 5.591622059312448823e-01
 5.852463070668746381e-01
 6.113303231943785221e-01
 6.386766475502156926e-01
 6.673041543240715301e-01
 6.959315172377755765e-01
 7.258293766275771830e-01
 7.569578323238943529e-01
 7.880862184953384419e-01
 8.200340800706555910e-01
 8.527107378280091021e-01
 8.853873940073104798e-01
 9.181324033642660476e-01
 9.508841154816756180e-01
 9.836358274683999481e-01
 2.114228309526242355e-01
 2.342656403539341015e-01
 2.571084497036756344e-01
 2.799395048517576146e-01
 3.027590298674283642e-01
 3.255785547633689991e-01
 3.484093847695594603e-01
 3.712631580191633751e-01
 3.941169316660350641e-01
 4.171172179168720628e-01
 4.402894489674660239e-01
 4.634616776650613557e-01
 4.870666729865452682e-01
 5.111426625875232777e-01
 5.352186285086445450e-01
 5.601506564893398155e-01
 5.859805937276346688e-01
 6.118104444816906407e-01
 6.389005285169644388e-01
 6.672697138836483077e-01
 6.956387527389470415e-01
 7.253546300555108184e-01
 7.563774105457977681e-01
 7.874001209422858416e-01
 8.193384232237769238e-01
 8.521015692921101170e-01
 8.848647137900992332e-01
 9.177328749207798175e-01
 9.506443984146228932e-01
 9.835559217790657005e-01
 2.114626826752349364e-01
 2.343959152487267716e-01
 2.573291478903469987e-01
 2.802912901461835360e-01
 3.032822357296154347e-01
 3.262731817943462787e-01
 3.492981348105732020e-01
 3.723602396655404378e-01
 3.954223459231596127e-01
 4.186106567088082042e-01
 4.419354186504095283e-01
 4.652601824742972347e-01
 4.889481493961629344e-01
 5.130223627329221214e-01
 5.370965721196719889e-01
 5.619335289611741002e-01
 5.875713923483377732e-01
 6.132092273975013885e-01
 6.400423968492503501e-01
 6.681135146993572027e-01
 6.961845487549935818e-01
 7.256121643057213966e-01
 7.564055710961253842e-01
 7.871988671495681045e-01
 8.189979410360725964e-01
 8.517320579177974915e-01
 8.844661533588997759e-01
 9.174075964494735613e-01
 9.504481409467528952e-01
 9.834886854756409447e-01
 2.115037330223688006e-01
 2.345190662897651546e-01
 2.575343996248019018e-01
 2.806293128363478995e-01
 3.038037017073168533e-01
 3.269780910519261563e-01
 3.502241278351432285e-01
 3.735449646017754977e-01
 3.968658027394804111e-01
 4.203044822689347426e-01
 4.438712402174907479e-01
 4.674380000073048436e-01
 4.912979714941710374e-01
 5.154741317337482309e-01
 5.396502880695287496e-01